8
Lattice="7.075027824289528 1.2990611001860927e-19 0.0 -3.5375139121447647 6.1271538283164775 0.0 -1.1924413300408607e-20 0.0 18.19960549604123" Properties=species:S:1:pos:R:3 energy=-21.38324375535217 dipole="1.3051904620982165e-12 -1.1059723976073952e-12 1.2159505211370476e-13" free_energy=-21.383243755407147 pbc="T T F"
Al       3.53751391       2.04238461       9.09978938
Al       0.00000000       4.08476922       9.09981611
I        4.53988868      -0.00000749       7.49850427
I        1.26756308       2.19549865       7.49850427
I       -2.26993785       3.93166267       7.49850427
I        2.53513914       0.00000749      10.70110123
I        2.26995083       3.93165518      10.70110123
I       -1.26757606       2.19549115      10.70110123
